<?xml version="1.0"?>
<VTKFile type="StructuredGrid" version="0.1">
<StructuredGrid WholeExtent="0 31 0 31 0 0">
<Piece Extent="0 31 0 31 0 0">
<PointData Scalars="SolutionField">
<DataArray type="Float32" Name="SolutionField" format="ascii" NumberOfComponents="1">
6.44170 4.54178 3.60742 3.06045 2.70167 2.44490 2.25107 2.25586 2.32810 2.40683 2.47095 2.50318 2.49355 2.46639 2.42779 2.38390 2.29597 2.18423 2.09992 2.04728 2.03374 2.08261 2.14344 2.19854 2.24048 2.25528 2.27950 2.39442 2.62053 3.01558 3.67143 4.67517 5.29596 4.12560 3.46684 3.04966 2.76138 2.54714 2.37959 2.37515 2.42424 2.47713 2.51819 2.53381 2.51249 2.47494 2.42659 2.37298 2.29080 2.19653 2.12357 2.07389 2.05111 2.08634 2.13638 2.18698 2.23252 2.24871 2.21576 2.23132 2.28847 2.39076 2.54798 2.77046 4.55250 3.83473 3.37961 3.06765 2.83942 2.66246 2.51920 2.49802 2.51831 2.54272 2.55956 2.55832 2.52775 2.48238 2.42704 2.36663 2.28924 2.20838 2.14432 2.09777 2.07014 2.09172 2.12879 2.17111 2.21534 2.23461 2.17919 2.15382 2.15058 2.16561 2.19760 2.24656 4.05021 3.63186 3.33427 3.11125 2.93549 2.79013 2.66515 2.62030 2.60799 2.60246 2.59461 2.57665 2.53934 2.48871 2.42904 2.36467 2.29118 2.21958 2.16132 2.11647 2.08528 2.09486 2.11950 2.15235 2.19232 2.21631 2.16173 2.12113 2.09304 2.07650 2.07082 2.07542 3.70151 3.49279 3.32298 3.17854 3.04979 2.92985 2.81442 2.73934 2.69179 2.65562 2.62312 2.58881 2.54730 2.49392 2.43250 2.36690 2.29648 2.23000 2.17408 2.12864 2.09353 2.09347 2.10802 2.13251 2.16777 2.19814 2.15745 2.11155 2.06963 2.04017 2.02964 2.04210 3.44212 3.39104 3.33263 3.26310 3.17941 3.07981 2.96435 2.85338 2.76907 2.70236 2.64585 2.59602 2.55278 2.49887 2.43780 2.37309 2.30447 2.23899 2.18206 2.13373 2.09400 2.08704 2.09490 2.11374 2.14565 2.18263 2.15874 2.11033 2.05913 2.02794 2.03435 2.08923 2.99943 3.10535 3.18853 3.23721 3.24081 3.19269 3.09280 2.95762 2.84747 2.75928 2.68625 2.62677 2.58216 2.52274 2.45318 2.37843 2.29989 2.23019 2.17373 2.12827 2.09208 2.08669 2.09084 2.10018 2.11506 2.12846 2.10117 2.06233 2.02741 2.01206 2.02879 2.08600 2.72464 2.91018 3.08698 3.23025 3.31231 3.31087 3.21883 3.05700 2.92175 2.81349 2.72548 2.65734 2.61015 2.54405 2.46498 2.37951 2.29060 2.21622 2.15972 2.11662 2.08369 2.08059 2.08319 2.08723 2.09278 2.09292 2.06111 2.02870 2.00611 2.00272 2.02580 2.08030 2.56060 2.78228 3.01989 3.23885 3.39170 3.43281 3.34183 3.15123 2.99169 2.86485 2.76343 2.68761 2.63669 2.56301 2.47379 2.37744 2.27776 2.19796 2.14084 2.09969 2.07002 2.06936 2.07128 2.07224 2.07313 2.06807 2.03782 2.01463 2.00381 2.00944 2.03439 2.08047 2.80333 2.98186 3.15568 3.30315 3.39996 3.42558 3.37096 3.23117 3.08992 2.95784 2.83514 2.72843 2.65271 2.56513 2.47057 2.37456 2.27445 2.18933 2.12640 2.08024 2.04714 2.04067 2.03942 2.04162 2.04906 2.05661 2.04142 2.03149 2.02981 2.03856 2.05911 2.09208 3.13452 3.21942 3.29401 3.35272 3.39029 3.40253 3.38707 3.30428 3.18843 3.05566 2.91369 2.77633 2.67154 2.56792 2.46684 2.37043 2.26980 2.17959 2.11141 2.06154 2.02748 2.01677 2.01423 2.02035 2.03860 2.06507 2.07038 2.08185 2.10065 2.12732 2.16184 2.20376 3.54285 3.47112 3.41874 3.38488 3.36919 3.37183 3.39347 3.36924 3.28425 3.15550 2.99768 2.83218 2.69496 2.57318 2.46377 2.36522 2.26357 2.16911 2.09698 2.04547 2.01352 2.00233 2.00352 2.02034 2.05933 2.11854 2.15543 2.20239 2.25852 2.32218 2.39142 2.46433 3.56210 3.50279 3.45915 3.43144 3.42040 3.42731 3.45414 3.43301 3.34986 3.22187 3.06374 2.89379 2.73282 2.59104 2.46621 2.35741 2.24974 2.15369 2.08408 2.03784 2.01295 2.00391 2.00870 2.03056 2.07415 2.13712 2.18324 2.23590 2.29233 2.34988 2.40633 2.46007 3.49443 3.48479 3.47911 3.47900 3.48636 3.50353 3.53336 3.50276 3.41322 3.28356 3.12684 2.95616 2.77455 2.61450 2.47586 2.35922 2.24675 2.14960 2.08381 2.04416 2.02724 2.02341 2.03550 2.06633 2.11840 2.19153 2.26370 2.33416 2.39683 2.44680 2.48067 2.49718 3.42160 3.45894 3.49210 3.52249 3.55211 3.58362 3.62048 3.57845 3.48029 3.34769 3.19167 3.02013 2.81953 2.64370 2.49476 2.37483 2.25955 2.16050 2.09810 2.06479 2.05574 2.05957 2.08212 2.12604 2.19273 2.28699 2.40367 2.51163 2.60102 2.66240 2.68691 2.66784 3.34219 3.42459 3.49777 3.56172 3.61756 3.66768 3.71583 3.66043 3.55142 3.41471 3.25900 3.08691 2.86960 2.68109 2.52599 2.40794 2.29133 2.18838 2.12807 2.10019 2.09844 2.11099 2.14504 2.20335 2.28730 2.40743 2.57352 2.72774 2.85785 2.95069 2.99062 2.95872 3.28040 3.39461 3.49905 3.59258 3.67558 3.75019 3.82052 3.75811 3.63786 3.49191 3.32836 3.14737 2.90980 2.70921 2.55219 2.44325 2.33022 2.22652 2.17343 2.15747 2.17050 2.19583 2.23775 2.29749 2.37500 2.48034 2.63274 2.77865 2.90773 3.00981 3.07412 3.09037 3.23643 3.37086 3.49774 3.61580 3.72547 3.82926 3.93196 3.86981 3.73906 3.57997 3.40215 3.20615 2.94561 2.73538 2.58296 2.49257 2.38864 2.28667 2.24497 2.24601 2.27960 2.31373 2.35175 2.39381 2.43784 2.48170 2.52595 2.57112 2.61679 2.67674 2.78759 3.01787 3.18615 3.34112 3.49137 3.63546 3.77393 3.90969 4.04830 3.98583 3.84433 3.67364 3.48517 3.27954 3.00059 2.78744 2.64785 2.58505 2.48968 2.38166 2.34501 2.35704 2.40502 2.43288 2.45134 2.46215 2.46282 2.43638 2.36366 2.33237 2.36725 2.51914 2.84692 3.38091 3.13018 3.30570 3.47999 3.65147 3.82077 3.99126 4.16939 4.10620 3.95431 3.77492 3.58154 3.37411 3.08210 2.87355 2.75566 2.73002 2.63921 2.51227 2.47065 2.48444 2.53735 2.54035 2.52159 2.48606 2.43204 2.33419 2.20186 2.20794 2.38392 2.77007 3.37182 4.13793 3.07766 3.27232 3.46971 3.66830 3.86907 4.07612 4.29714 4.23340 4.07216 3.88675 3.69234 3.48690 3.18245 2.98308 2.89365 2.91253 2.81993 2.66007 2.60138 2.60354 2.64510 2.60097 2.52980 2.44061 2.33305 2.18707 2.09140 2.23255 2.59741 3.17259 3.90999 4.73050 3.07146 3.27933 3.49307 3.71221 3.93936 4.18074 4.44679 4.38229 4.21147 4.01499 3.80492 3.57664 3.23763 3.03844 2.97385 3.03303 2.93489 2.74041 2.65466 2.62435 2.62168 2.51836 2.40473 2.29065 2.17580 2.05240 2.02824 2.20069 2.49894 2.86687 3.25091 3.60332 3.07304 3.29378 3.52399 3.76445 4.01950 4.29771 4.61258 4.54358 4.36380 4.16533 3.95664 3.72478 3.35562 3.16585 3.13494 3.24055 3.11428 2.85309 2.72058 2.64618 2.59478 2.44430 2.30582 2.18818 2.09170 2.01765 2.05528 2.25430 2.54673 2.88251 3.21870 3.51949 3.06615 3.30323 3.55489 3.82250 4.11141 4.43171 4.79911 4.71882 4.52993 4.34249 4.16091 3.95078 3.54894 3.37267 3.37799 3.52828 3.34494 2.98630 2.79260 2.67054 2.57618 2.39230 2.24498 2.14198 2.08449 2.06964 2.12667 2.32125 2.62441 3.04265 3.60228 4.33054 2.84666 3.14100 3.47686 3.84560 4.23855 4.64872 5.07251 4.91918 4.66074 4.42984 4.22532 3.99198 3.55440 3.39452 3.41608 3.56086 3.32528 2.92163 2.71312 2.59849 2.52805 2.37924 2.25262 2.17139 2.15231 2.19014 2.20515 2.31956 2.48729 2.67161 2.85088 3.02401 2.70776 3.02479 3.41923 3.87661 4.37397 4.88212 5.37064 5.13096 4.79511 4.53240 4.34315 4.12211 3.61282 3.44139 3.45115 3.56479 3.27888 2.84583 2.62572 2.51141 2.44929 2.34628 2.25856 2.21895 2.26277 2.37992 2.34282 2.37099 2.41326 2.42325 2.38180 2.30727 2.64406 2.95611 3.38563 3.91793 4.51853 5.13288 5.69613 5.35664 4.93854 4.67073 4.56665 4.40208 3.75058 3.52987 3.49985 3.56232 3.22285 2.76699 2.53591 2.41565 2.35012 2.29405 2.25839 2.28045 2.41849 2.65723 2.54652 2.46625 2.38419 2.28319 2.17243 2.07976 2.83032 3.15205 3.56727 4.06509 4.63018 5.24728 5.90584 5.59244 5.18417 4.96214 4.91636 4.66622 3.78479 3.47428 3.37392 3.36292 3.00379 2.56622 2.34263 2.22913 2.17590 2.14413 2.14888 2.22925 2.45900 2.82003 2.67602 2.56700 2.46633 2.36034 2.25989 2.19290 2.98613 3.31809 3.71582 4.17668 4.70786 5.33170 6.09141 5.80309 5.39757 5.22050 5.21777 4.82841 3.71241 3.31471 3.14578 3.06659 2.73626 2.38992 2.22707 2.15454 2.13127 2.05648 2.05425 2.17495 2.49891 2.99792 2.82139 2.68972 2.58639 2.50345 2.45035 2.44834 3.08007 3.42917 3.81464 4.24550 4.75252 5.39164 6.25701 5.98478 5.56392 5.42370 5.44812 4.90605 3.58383 3.11035 2.88254 2.74812 2.47574 2.27364 2.22826 2.24549 2.28206 2.08329 2.00372 2.13054 2.54210 3.18843 2.97967 2.82950 2.74097 2.72283 2.78423 2.92525 3.10164 3.47978 3.86232 4.27232 4.76515 5.42712 6.40197 6.13463 5.67143 5.55527 5.60589 4.94138 3.44674 2.90590 2.62926 2.45454 2.25532 2.23426 2.36591 2.53714 2.67662 2.26420 2.01725 2.10212 2.58669 3.38162 3.14201 2.97872 2.92885 3.04540 3.35541 3.80865 3.05956 3.47730 3.86474 4.26097 4.74750 5.43825 6.52588 6.25031 5.70627 5.60451 5.72198 4.98503 3.33902 2.73296 2.41664 2.21903 2.09864 2.28449 2.65913 3.06859 3.37066 2.64020 2.11236 2.09403 2.63121 3.56920 3.30003 3.12858 3.14682 3.51754 4.38274 5.61066 </DataArray>
</PointData>
<Points>
<DataArray type="Float32" NumberOfComponents="3">
30.00000 80.00000 0 49.28623 75.49049 0 66.95139 71.57485 0 82.99547 68.25308 0 97.41846 65.52520 0 110.22038 63.39118 0 121.40122 61.85105 0 131.62307 60.68557 0 142.25148 59.44262 0 153.32784 58.10849 0 164.85214 56.68319 0 176.82352 55.16285 0 189.19304 53.33189 0 201.93255 51.06619 0 215.04204 48.36576 0 228.52152 45.23060 0 242.24091 41.72373 0 255.41977 38.22320 0 267.92804 34.79206 0 279.76571 31.43028 0 290.93278 28.13788 0 301.95338 25.04612 0 313.73793 22.38302 0 326.30275 20.15267 0 339.64784 18.35507 0 353.73168 16.97473 0 367.18374 15.50037 0 379.33953 13.68411 0 390.19905 11.52594 0 399.76230 9.02587 0 408.02928 6.18389 0 415.00000 3.00000 0 27.10178 84.40617 0 46.04241 81.08920 0 63.59507 78.06470 0 79.75975 75.33267 0 94.53646 72.89310 0 107.92519 70.74600 0 119.92595 68.89136 0 131.08647 67.25151 0 142.53642 65.66621 0 154.31004 64.13061 0 166.40734 62.64470 0 178.82763 61.20398 0 191.53335 59.55671 0 204.50287 57.55796 0 217.73620 55.20774 0 231.23333 52.50604 0 244.90661 49.50400 0 258.23009 46.50843 0 271.11611 43.57047 0 283.56469 40.69013 0 295.57581 37.86739 0 307.52992 35.25853 0 320.08786 33.13503 0 333.26149 31.50175 0 347.05080 30.35868 0 361.42814 29.68042 0 375.48141 28.62828 0 388.76837 26.79564 0 401.28901 24.18250 0 413.04333 20.78886 0 424.03133 16.61472 0 434.25302 11.66007 0 24.21356 89.23757 0 42.88038 86.84522 0 60.36985 84.50952 0 76.68198 82.23047 0 91.81677 80.00807 0 105.77422 77.84231 0 118.55433 75.73321 0 130.59813 73.71676 0 142.81528 71.86718 0 155.23335 70.18674 0 167.85232 68.67544 0 180.67195 67.32829 0 193.67837 65.86817 0 206.86358 64.13552 0 220.22758 62.13034 0 233.77037 59.85263 0 247.43665 57.34360 0 260.89459 54.85045 0 274.08887 52.41440 0 287.01951 50.03545 0 299.68649 47.71359 0 312.36945 45.60845 0 325.55409 43.99730 0 339.24913 42.88512 0 353.45457 42.27190 0 368.15251 42.12749 0 382.75275 41.45646 0 396.96913 39.77620 0 410.80163 37.08672 0 424.25027 33.38800 0 437.31504 28.68006 0 449.99595 22.96288 0 21.33535 94.49422 0 39.80014 92.75855 0 57.27574 90.90930 0 73.76216 88.94648 0 89.25940 86.87009 0 103.76746 84.68013 0 117.28634 82.37660 0 130.15806 80.08131 0 143.08808 78.04555 0 156.09775 76.27691 0 169.18709 74.77540 0 182.35650 73.53579 0 195.62811 72.26627 0 209.01467 70.79887 0 222.51618 69.13357 0 236.13265 67.27038 0 249.83105 65.24251 0 263.41328 63.24926 0 276.84632 61.32384 0 290.13017 59.46625 0 303.26483 57.67649 0 316.47197 56.09586 0 330.13662 54.96983 0 344.26568 54.30279 0 358.85916 54.09474 0 373.90479 54.31594 0 388.99776 53.98491 0 403.94181 52.62579 0 418.73693 50.23859 0 433.38314 46.82329 0 447.88042 42.37990 0 462.22879 36.90841 0 18.46714 100.17610 0 36.80169 98.82917 0 54.31274 97.26405 0 71.00030 95.48072 0 86.86436 93.47918 0 101.90492 91.25945 0 116.12199 88.82151 0 129.76626 86.34518 0 143.35479 84.20129 0 156.90326 82.40110 0 170.41166 80.94459 0 183.88126 79.82646 0 197.38255 78.75102 0 210.95613 77.54800 0 224.60200 76.21742 0 238.32015 74.75928 0 252.08979 73.20075 0 265.78616 71.70486 0 279.38845 70.29878 0 292.89668 68.98252 0 306.31083 67.75608 0 319.83749 66.72078 0 333.83544 66.05262 0 348.31114 65.75475 0 363.26457 65.82719 0 378.68496 66.24577 0 394.21642 66.21364 0 409.68640 65.34441 0 425.09490 63.63811 0 440.44193 61.09471 0 455.72747 57.71424 0 470.95153 53.49668 0 15.60921 106.28382 0 33.88525 105.05757 0 51.48101 103.57409 0 68.39649 101.83340 0 84.63170 99.83549 0 100.18664 97.58036 0 115.06131 95.06800 0 129.42274 92.50836 0 143.61546 90.33441 0 157.64990 88.55927 0 171.52607 87.18293 0 185.24632 86.20024 0 198.94181 85.32231 0 212.68807 84.38285 0 226.48508 83.38186 0 240.33285 82.31934 0 254.21276 81.21836 0 268.01305 80.21732 0 281.71509 79.33929 0 295.31888 78.58428 0 308.82443 77.95227 0 322.46600 77.48299 0 336.65055 77.24546 0 351.38538 77.24090 0 366.67048 77.46933 0 382.49242 77.91734 0 398.40791 78.14311 0 414.20201 77.93242 0 429.87473 77.28527 0 445.42606 76.20166 0 460.85600 74.68158 0 476.16456 72.72505 0 12.94364 113.21935 0 31.19047 111.75239 0 48.88380 110.06716 0 66.02364 108.16367 0 82.60999 106.04190 0 98.64285 103.70186 0 114.12222 101.14355 0 129.13950 98.57605 0 143.88324 96.43059 0 158.35915 94.72024 0 172.56724 93.44501 0 186.51084 92.60012 0 200.37684 91.91989 0 214.27285 91.25135 0 228.19885 90.59452 0 242.15486 89.94938 0 256.12080 89.33194 0 269.97632 88.83823 0 283.70135 88.48424 0 297.29591 88.26997 0 310.75998 88.19543 0 324.36401 88.24978 0 338.57779 88.41421 0 353.40974 88.68838 0 368.85984 89.07229 0 384.91126 89.56385 0 401.00767 90.09431 0 416.87935 90.63031 0 432.52630 91.17186 0 447.94852 91.71896 0 463.14600 92.27160 0 478.11876 92.82980 0 10.62626 121.32674 0 28.83689 119.17783 0 46.60952 116.93815 0 63.94415 114.60769 0 80.84078 112.18646 0 97.29942 109.67444 0 113.32006 107.07165 0 128.92682 104.55267 0 144.16943 102.47760 0 159.04940 100.85735 0 173.56674 99.69192 0 187.72543 98.97734 0 201.74837 98.49218 0 215.76386 98.10897 0 229.77192 97.82771 0 243.77254 97.64840 0 257.74614 97.57283 0 271.57528 97.61172 0 285.24038 97.76689 0 298.74143 98.03831 0 312.07844 98.42600 0 325.53708 98.90755 0 339.61359 99.44405 0 354.31686 100.03481 0 369.64689 100.67983 0 385.58550 101.38492 0 401.53252 102.34194 0 417.19695 103.64392 0 432.57880 105.29085 0 447.67807 107.28274 0 462.49475 109.61959 0 477.02885 112.30139 0 8.65708 130.60598 0 26.82451 127.33389 0 44.65815 124.18706 0 62.15800 121.16549 0 79.32407 118.26918 0 96.15635 115.49812 0 112.65484 112.85232 0 128.78469 110.43824 0 144.47402 108.47544 0 159.72065 106.97058 0 174.52458 105.92367 0 188.89010 105.33189 0 203.05638 105.03919 0 217.16111 104.95570 0 231.20428 105.08144 0 245.18590 105.41640 0 259.08880 105.94100 0 272.80994 106.53780 0 286.33216 107.18723 0 299.65545 107.88928 0 312.77981 108.64396 0 325.98520 109.45629 0 339.75795 110.33499 0 354.10676 111.28021 0 369.03163 112.29196 0 384.51515 113.38055 0 399.98245 114.88602 0 415.15481 116.97326 0 430.03223 119.64226 0 444.61471 122.89302 0 458.90225 126.72554 0 472.89484 131.13983 0 6.92057 140.10798 0 25.09512 135.64452 0 43.01525 131.53052 0 60.68095 127.76597 0 78.09224 124.35088 0 95.24910 121.28525 0 112.15155 118.56908 0 128.72052 116.24186 0 144.79297 114.38506 0 160.36396 113.00116 0 175.43350 112.09015 0 190.00572 111.65024 0 204.31176 111.58157 0 218.48465 111.82666 0 232.52441 112.38552 0 246.43103 113.25813 0 260.19152 114.40277 0 273.72792 115.56910 0 287.02723 116.71537 0 300.08947 117.84160 0 312.91462 118.94778 0 325.75942 120.07339 0 339.06983 121.28702 0 352.85385 122.58989 0 367.11146 123.98200 0 381.82716 125.47634 0 396.48909 127.50166 0 410.84907 130.26580 0 424.90709 133.76879 0 438.66316 138.01060 0 452.11727 142.99126 0 465.26943 148.71074 0 5.27125 148.63742 0 23.57541 143.38423 0 41.66261 138.61163 0 59.53283 134.31961 0 77.18609 130.50819 0 94.62237 127.17735 0 111.84168 124.32711 0 128.74364 121.97502 0 145.12121 120.15729 0 160.96811 118.87504 0 176.28436 118.12825 0 191.07340 117.91530 0 205.52818 118.14534 0 219.75976 118.76607 0 233.76815 119.77748 0 247.55335 121.17957 0 261.10813 122.91570 0 274.38917 124.64594 0 287.38925 126.31365 0 300.10837 127.91881 0 312.54653 129.46143 0 324.92402 130.98225 0 337.62350 132.55203 0 350.65184 134.17203 0 364.00903 135.84227 0 377.68141 137.57862 0 391.21819 139.90563 0 404.40078 143.07761 0 417.22918 147.09455 0 429.70341 151.95647 0 441.82345 157.66336 0 453.58931 164.21522 0 3.70864 156.19046 0 22.26515 150.55068 0 40.60017 145.42924 0 58.71370 140.82612 0 76.60574 136.74134 0 94.27628 133.17489 0 111.72533 130.12676 0 128.85408 127.63775 0 145.45871 125.79197 0 161.53306 124.59198 0 177.07713 124.03778 0 192.09314 124.12704 0 206.70570 124.73059 0 220.98653 125.77405 0 234.93564 127.25744 0 248.55302 129.18075 0 261.83882 131.47965 0 274.79390 133.76815 0 287.41841 135.98193 0 299.71236 138.12099 0 311.67573 140.18532 0 323.47919 142.18359 0 335.41919 144.13083 0 347.50104 146.02732 0 359.72475 147.87307 0 372.07842 149.68708 0 384.17028 152.09702 0 395.81034 155.40723 0 406.99860 159.61770 0 417.73508 164.72843 0 428.01976 170.73942 0 437.85265 177.65067 0 2.35075 163.13622 0 21.19427 157.35292 0 39.79527 152.06860 0 58.15374 147.28326 0 76.26969 142.99690 0 94.14312 139.20951 0 111.77402 135.92111 0 129.07404 133.22420 0 145.86091 131.30960 0 162.12911 130.18310 0 177.87865 129.84469 0 193.11031 130.29087 0 207.86740 131.32544 0 222.17489 132.83547 0 236.03277 134.82097 0 249.44103 137.28193 0 262.40824 140.14964 0 274.98568 143.01190 0 287.18192 145.79999 0 298.99695 148.51392 0 310.43077 151.15368 0 321.60260 153.68476 0 332.71951 156.04720 0 343.78523 158.23991 0 354.79974 160.26291 0 365.75281 162.13714 0 376.30656 164.55424 0 386.29714 167.84955 0 395.72455 172.02308 0 404.58881 177.07481 0 412.88991 183.00476 0 420.62784 189.81291 0 1.40976 170.13849 0 20.41660 164.16684 0 39.18915 158.68300 0 57.72742 153.68698 0 76.03140 149.17877 0 94.10110 145.15837 0 111.93652 141.62578 0 129.44342 138.72382 0 146.42744 136.74702 0 162.88268 135.70432 0 178.80915 135.59570 0 194.20649 136.41655 0 209.05483 137.90857 0 223.34272 139.92308 0 237.07017 142.46007 0 250.23718 145.51955 0 262.86074 149.02464 0 275.04289 152.51416 0 286.80061 155.91125 0 298.13391 159.21589 0 309.04279 162.42810 0 319.61367 165.49903 0 329.99666 168.34388 0 340.19447 170.96112 0 350.20708 173.35076 0 360.02557 175.53196 0 369.35543 178.13752 0 378.05387 181.47426 0 386.12088 185.54218 0 393.55647 190.34127 0 400.36063 195.87154 0 406.53336 202.13299 0 0.88997 177.21067 0 19.93322 171.00003 0 38.78063 165.27553 0 57.43219 160.03719 0 75.88791 155.28501 0 94.14778 151.01897 0 112.21180 147.23909 0 129.96305 144.13641 0 147.16032 142.10499 0 163.79632 141.15677 0 179.87104 141.29175 0 195.38334 142.50428 0 210.26880 144.47955 0 224.49038 147.03632 0 238.04806 150.17458 0 250.94185 153.89434 0 263.19723 158.10664 0 274.96709 162.27771 0 286.27691 166.31860 0 297.12669 170.22929 0 307.51644 174.00980 0 317.51885 177.62665 0 327.26017 181.02174 0 336.74269 184.19400 0 345.96639 187.14345 0 354.92335 189.88371 0 363.35179 192.86423 0 371.12479 196.30295 0 378.24235 200.19987 0 384.70447 204.55497 0 390.51115 209.36827 0 395.66239 214.63976 0 0.79136 184.35275 0 19.74414 177.85247 0 38.56971 171.84619 0 57.26806 166.33391 0 75.83921 161.31562 0 94.28314 156.79132 0 112.59986 152.76102 0 130.63290 149.46196 0 148.05955 147.38350 0 164.87003 146.54046 0 181.06433 146.93283 0 196.64084 148.55406 0 211.50934 151.03838 0 225.61787 154.17519 0 238.96644 157.96450 0 251.55506 162.40632 0 263.41770 167.39564 0 274.75829 172.30254 0 285.61083 177.02203 0 295.97531 181.55411 0 305.85174 185.89879 0 315.31813 190.06763 0 324.51004 194.08077 0 333.42989 197.93856 0 342.07768 201.64100 0 350.44614 205.19239 0 358.29561 208.73437 0 365.50988 212.33562 0 372.08894 215.99613 0 378.03280 219.71590 0 383.34146 223.49494 0 388.01492 227.33325 0 1.10155 191.55267 0 19.84588 184.71746 0 38.55952 178.39212 0 57.24246 172.57665 0 75.89470 167.27107 0 94.51625 162.47535 0 113.10710 158.18952 0 131.45546 154.69607 0 149.12453 152.57769 0 166.10106 151.85204 0 182.38505 152.51912 0 197.97474 154.57154 0 212.77173 157.59703 0 226.71936 161.35824 0 239.81763 165.85519 0 252.06655 171.08787 0 263.50914 176.93144 0 274.40365 182.63680 0 284.79309 188.07911 0 294.67748 193.25838 0 304.05681 198.17460 0 313.03120 202.90413 0 321.77452 207.57962 0 330.28991 212.20345 0 338.57736 216.77561 0 346.63055 221.28860 0 354.24064 225.49439 0 361.30640 229.27275 0 367.82783 232.62366 0 373.80491 235.54714 0 379.23766 238.04318 0 384.12607 240.11178 0 1.74622 198.73811 0 20.21764 191.55460 0 38.76888 184.89611 0 57.39992 178.76263 0 76.11078 173.15415 0 94.90144 168.07069 0 113.77192 163.51224 0 132.44552 159.81223 0 150.35162 157.65838 0 167.47291 157.07153 0 183.80941 158.05168 0 199.35939 160.59056 0 214.02777 164.22735 0 227.75981 168.69677 0 240.55551 173.99881 0 252.41486 180.13346 0 263.39360 186.95282 0 273.82610 193.56935 0 283.76809 199.83512 0 293.21957 205.75016 0 302.18054 211.31444 0 310.77601 216.62919 0 319.22313 221.87022 0 327.52579 227.04069 0 335.68399 232.14059 0 343.69612 237.15588 0 351.50931 241.62302 0 359.09792 245.31728 0 366.46194 248.23866 0 373.60138 250.38716 0 380.51624 251.76277 0 387.20651 252.36549 0 2.71297 205.89700 0 20.85595 198.35718 0 39.20092 191.35530 0 57.74788 184.89136 0 76.49683 178.96534 0 95.44778 173.57726 0 114.60071 168.72712 0 133.60555 164.80603 0 151.74022 162.62071 0 168.98285 162.19559 0 185.33343 163.53067 0 200.79051 166.61677 0 215.27277 170.94134 0 228.73340 176.20932 0 241.17240 182.42070 0 252.58976 189.57549 0 263.05806 197.49959 0 273.01280 205.14833 0 282.52654 212.34762 0 291.59930 219.09746 0 300.23106 225.39784 0 308.57225 231.32498 0 316.88412 237.01122 0 325.17136 242.45894 0 333.43397 247.66814 0 341.67945 252.62482 0 350.15534 256.86672 0 358.98167 260.16972 0 368.15844 262.53382 0 377.68564 263.95903 0 387.56329 264.44533 0 397.79136 263.99273 0 4.00180 213.02934 0 21.76080 205.12520 0 39.85564 197.76970 0 58.28633 190.96284 0 77.05287 184.70464 0 96.15526 178.99508 0 115.59349 173.83416 0 134.93554 169.67748 0 153.29033 167.46467 0 170.63086 167.22421 0 186.95712 168.95610 0 202.26811 172.65016 0 216.50673 177.73898 0 229.64012 183.89589 0 241.66829 191.12088 0 252.59123 199.41397 0 262.50253 208.57174 0 271.96375 217.37375 0 281.06846 225.61660 0 289.81667 233.30029 0 298.20838 240.42481 0 306.41990 246.99149 0 314.75748 253.00261 0 323.22662 258.45820 0 331.82730 263.35828 0 340.58053 267.69543 0 350.17874 271.22549 0 360.95767 273.83006 0 372.91733 275.50914 0 386.05770 276.26275 0 400.37880 276.09086 0 415.88062 274.99350 0 5.60842 220.13535 0 22.92875 211.85881 0 40.73043 204.13940 0 59.01346 196.97712 0 77.77785 190.37196 0 97.02358 184.32394 0 116.75068 178.83305 0 136.43649 174.42617 0 155.00309 172.19000 0 172.41781 172.15748 0 188.68065 174.32860 0 203.79122 178.69215 0 217.72737 184.62254 0 230.47634 191.75961 0 242.03815 200.10337 0 252.41278 209.65382 0 261.71902 220.17495 0 270.66946 230.25079 0 279.38287 239.64535 0 287.85926 248.35862 0 296.09862 256.39060 0 304.30375 263.61938 0 312.82688 269.83318 0 321.67434 275.02819 0 330.84613 279.20443 0 340.38081 282.36757 0 351.55156 284.70506 0 364.97564 286.30779 0 380.65307 287.17574 0 398.58384 287.30893 0 418.76795 286.70736 0 441.20541 285.37101 0 7.31970 227.22526 0 24.18894 218.56627 0 41.69540 210.46970 0 59.83907 202.93555 0 78.61996 195.96382 0 98.03807 189.55452 0 118.09340 183.70764 0 138.15769 179.03193 0 156.93518 176.78295 0 174.38662 176.99874 0 190.51200 179.67930 0 205.31195 184.81219 0 218.82175 191.70415 0 231.06173 199.95603 0 242.03188 209.56785 0 251.73220 220.53960 0 260.31119 232.59057 0 268.65981 244.03653 0 276.92656 254.59677 0 285.11144 264.27128 0 293.21444 273.06008 0 301.46938 280.74496 0 310.28238 286.94692 0 319.66073 291.65915 0 329.60442 294.88166 0 340.16070 296.63480 0 352.88856 297.59018 0 368.54386 298.07342 0 387.12661 298.08453 0 408.63680 297.62351 0 433.07445 296.69035 0 460.43954 295.28506 0 9.01710 234.30476 0 25.44635 225.25215 0 42.67833 216.76353 0 60.71302 208.83890 0 79.55043 201.47827 0 99.19055 194.68163 0 119.63339 188.44898 0 140.12654 183.48357 0 159.11814 181.23588 0 176.56116 181.74986 0 192.45561 185.02550 0 206.80366 191.04892 0 219.72710 199.04616 0 231.29602 208.57164 0 241.51042 219.62536 0 250.37030 232.20731 0 258.05865 245.97505 0 265.67337 258.87391 0 273.39743 270.56143 0 281.23083 281.03762 0 289.17358 290.30249 0 297.49725 298.11038 0 306.67356 304.03463 0 316.71097 308.06759 0 327.60947 310.20925 0 339.40879 310.49353 0 353.41938 310.03918 0 370.27662 309.38863 0 389.98052 308.54189 0 412.53106 307.49895 0 437.92826 306.25982 0 466.17211 304.82450 0 10.70152 241.37506 0 26.70160 231.91717 0 43.67958 223.02124 0 61.63547 214.68725 0 80.56925 206.91520 0 100.48094 199.70510 0 121.37052 193.05695 0 142.34285 187.78109 0 161.55165 185.54889 0 178.94098 186.41097 0 194.51084 190.36736 0 208.26548 197.40248 0 220.44229 206.64860 0 231.17793 217.60614 0 240.47240 230.27510 0 248.32570 244.65549 0 254.96007 260.32618 0 261.70895 274.76038 0 268.79459 287.53696 0 276.21698 298.65592 0 283.97613 308.11726 0 292.38795 315.71640 0 302.00120 321.09798 0 312.82573 324.25563 0 324.86154 325.18935 0 338.12465 323.94548 0 353.14414 322.05341 0 370.17651 320.25464 0 389.22176 318.54918 0 410.27990 316.93702 0 433.35093 315.41818 0 458.43485 313.99264 0 12.64968 248.80848 0 28.14382 238.78438 0 44.81424 229.34927 0 62.66094 220.50314 0 81.68392 212.24601 0 101.88318 204.57787 0 123.25872 197.49872 0 144.74487 191.92515 0 164.14365 189.74762 0 181.38846 191.02342 0 196.47930 195.75255 0 209.42342 203.91702 0 220.62502 214.51383 0 230.31682 226.96554 0 238.49879 241.27214 0 245.17096 257.43363 0 250.60196 274.95951 0 256.40370 290.90667 0 262.84483 304.78458 0 269.92535 316.59326 0 277.64525 326.33271 0 286.32250 333.80239 0 296.50938 338.65399 0 308.21579 340.88127 0 321.44173 340.48423 0 336.17729 337.52487 0 352.09505 334.04949 0 369.03628 331.05022 0 387.00098 328.52707 0 405.98915 326.48003 0 426.00079 324.90910 0 447.03590 323.81429 0 15.08131 256.90068 0 29.92319 246.03085 0 46.17366 235.83212 0 63.83271 226.30449 0 82.90036 217.44796 0 103.37660 209.26254 0 125.26142 201.74821 0 147.28356 195.91626 0 166.82101 193.85245 0 183.79431 195.62000 0 198.20346 201.21890 0 210.05993 210.62760 0 220.00350 222.64376 0 228.40248 236.57522 0 235.25687 252.42196 0 240.56668 270.18400 0 244.65601 289.33155 0 249.46948 306.68604 0 255.33120 321.71769 0 262.24117 334.42651 0 270.19938 344.81248 0 279.44467 352.55838 0 290.39190 357.11317 0 303.04849 358.46696 0 317.41446 356.61975 0 333.46267 351.65587 0 350.29771 346.35825 0 367.48544 342.07615 0 385.02586 338.80960 0 402.91897 336.55858 0 421.16477 335.32310 0 439.76327 335.10315 0 17.99642 265.65164 0 32.03971 253.65659 0 47.75784 242.46981 0 65.15079 232.09130 0 84.21857 222.52107 0 104.96118 213.75910 0 127.37862 205.80541 0 149.95893 199.75443 0 169.58374 197.86340 0 186.15853 200.20073 0 199.68331 206.76643 0 210.17501 217.53421 0 218.57771 231.03839 0 225.43492 246.43518 0 230.74664 263.72457 0 234.51288 282.90658 0 237.12223 303.44231 0 240.90631 322.09851 0 246.25371 338.33629 0 253.16445 352.15565 0 261.63851 363.55659 0 271.75445 371.98440 0 283.64875 376.47552 0 297.32384 377.01270 0 312.77973 373.59592 0 329.98081 366.33849 0 347.75211 358.97967 0 365.52397 353.33243 0 383.29639 349.39676 0 401.06936 347.17268 0 418.84288 346.66017 0 436.61695 347.85924 0 21.40158 274.03914 0 34.54647 260.99684 0 49.64582 248.88410 0 66.69965 237.70090 0 85.70795 227.44726 0 106.67073 218.12316 0 129.58798 209.72862 0 152.68317 203.44786 0 172.29218 201.72334 0 188.30398 204.62909 0 200.71857 212.16511 0 209.55978 224.29912 0 216.15677 239.23131 0 221.27472 255.92553 0 224.91365 274.38178 0 227.07355 294.60006 0 228.20996 316.07833 0 231.05615 335.80432 0 236.06767 353.27597 0 243.24452 368.49330 0 252.58670 381.45631 0 263.93821 391.19957 0 277.02811 396.04614 0 291.85152 395.96597 0 308.40845 390.95903 0 326.66075 381.17420 0 345.34940 371.52363 0 363.86399 364.38896 0 382.20451 359.77020 0 400.37097 357.66735 0 418.36335 358.08040 0 436.18166 361.00937 0 25.30452 280.86879 0 37.50546 267.27491 0 51.92996 254.63306 0 68.57800 242.94323 0 87.44959 232.20543 0 108.54474 222.41966 0 131.86343 213.58591 0 155.35367 207.00613 0 174.78317 205.36556 0 190.02369 208.74558 0 201.07522 217.14619 0 207.97020 230.52771 0 212.51765 246.67757 0 215.75901 264.32199 0 217.69429 283.46096 0 218.32347 304.09449 0 218.16380 325.82179 0 220.31859 346.23809 0 225.30508 364.94259 0 233.12326 381.93530 0 243.77313 397.21622 0 256.79791 409.17472 0 271.40413 415.01310 0 287.57756 414.68120 0 305.31821 408.17901 0 324.58801 395.69740 0 344.13079 383.53429 0 363.33752 374.74324 0 382.20818 369.32425 0 400.74278 367.27732 0 418.94132 368.60244 0 436.80380 373.29962 0 29.70523 286.13882 0 40.91680 272.48964 0 54.61038 259.71604 0 70.78599 247.81801 0 89.44361 236.79556 0 110.58326 226.64868 0 134.20493 217.37738 0 157.97028 210.42925 0 177.05646 208.78995 0 191.31734 212.54996 0 200.75291 221.70927 0 205.40591 236.21940 0 207.66002 253.37637 0 208.88754 271.62348 0 209.08845 290.96074 0 208.26277 311.38814 0 206.98411 332.67059 0 208.69421 353.39750 0 213.96671 373.33377 0 222.80160 392.47941 0 235.19889 410.83441 0 250.33473 425.90832 0 266.77811 433.37518 0 284.50338 433.15743 0 303.51052 425.25506 0 323.76420 409.90738 0 344.09782 395.01098 0 363.94578 384.39452 0 383.30806 378.05801 0 402.18468 376.00145 0 420.57562 378.22482 0 438.48090 384.72815 0 34.60373 289.84922 0 44.78047 276.64103 0 57.68710 264.13303 0 73.32361 252.32524 0 91.69001 241.21764 0 112.78630 230.81025 0 136.61248 221.10305 0 160.53300 213.71724 0 179.11206 211.99652 0 192.18494 216.04223 0 199.75164 225.85435 0 201.86690 241.37420 0 201.58388 259.32771 0 200.66030 277.83001 0 199.09615 296.88110 0 196.89143 316.48099 0 194.67089 336.62472 0 196.18302 357.28255 0 202.05258 378.44951 0 212.27956 400.12561 0 226.86397 422.31086 0 244.54868 441.40037 0 263.15006 451.13239 0 282.62897 451.39466 0 302.98539 442.18718 0 324.18933 423.80414 0 345.25050 405.95369 0 365.68878 393.34280 0 385.50417 385.97148 0 404.69666 383.83973 0 423.26626 386.94755 0 441.21297 395.29494 0 40.00000 292.00000 0 49.09648 279.72908 0 61.160